*******************************************************************************
locality: 0
   0: PU L#0(P#0), Core L#0(P#0), Socket L#0(P#0), on pool "default"
   1: PU L#2(P#1), Core L#1(P#1), Socket L#0(P#0), on pool "default"
   2: PU L#4(P#2), Core L#2(P#2), Socket L#0(P#0), on pool "default"
   3: PU L#6(P#3), Core L#3(P#3), Socket L#0(P#0), on pool "default"
   4: PU L#8(P#4), Core L#4(P#4), Socket L#0(P#0), on pool "default"
   5: PU L#10(P#5), Core L#5(P#5), Socket L#0(P#0), on pool "default"
   6: PU L#12(P#6), Core L#6(P#8), Socket L#0(P#0), on pool "default"
   7: PU L#14(P#7), Core L#7(P#9), Socket L#0(P#0), on pool "default"
   8: PU L#16(P#8), Core L#8(P#10), Socket L#0(P#0), on pool "default"
   9: PU L#18(P#9), Core L#9(P#11), Socket L#0(P#0), on pool "default"
  10: PU L#20(P#10), Core L#10(P#12), Socket L#0(P#0), on pool "default"
  11: PU L#22(P#11), Core L#11(P#13), Socket L#0(P#0), on pool "default"
 DBCSR| CPU Multiplication driver                                           XSMM (U)
 DBCSR| Multrec recursion limit                                              512 (U)
 DBCSR| Multiplication stack size                                           1000 (D)
 DBCSR| Maximum elements for images                                    UNLIMITED (U)
 DBCSR| Multiplicative factor virtual images                                   1 (U)
 DBCSR| Use multiplication densification                                       T (D)
 DBCSR| Multiplication size stacks                                             3 (U)
 DBCSR| Use memory pool for CPU allocation                                     F (U)
 DBCSR| Number of 3D layers                                               SINGLE (U)
 DBCSR| Use MPI memory allocation                                              F (U)
 DBCSR| Use RMA algorithm                                                      F (U)
 DBCSR| Use Communication thread                                               T (U)
 DBCSR| Communication thread load                                              0 (D)
 DBCSR| MPI: My process id                                                     0
 DBCSR| MPI: Number of processes                                               1
 DBCSR| OMP: Current number of threads                                        24
 DBCSR| OMP: Max number of threads                                            24
 DBCSR| Split modifier for TAS multiplication algorithm                  1.0E+00 (U)


  **** **** ******  **  PROGRAM STARTED AT               2023-10-19 09:42:25.938
 ***** ** ***  *** **   PROGRAM STARTED ON                               mercury
 **    ****   ******    PROGRAM STARTED BY                                 rmeli
 ***** **    ** ** **   PROGRAM PROCESS ID                                 70512
  **** **  *******  **  PROGRAM STARTED IN  /home/rmeli/git/cp2k/build-dlaf-test

 CP2K| version string:                 CP2K version 2023.2 (Development Version)
 CP2K| source code revision number:                                    49f55be37
 CP2K| cp2kflags: ndebug omp fftw3 parallel mpi_f08 scalapack mkl dlaf          
 CP2K| is freely available from                            https://www.cp2k.org/
 CP2K| Program compiled at                                   2023-10-19 09:35:44
 CP2K| Program compiled on                                               mercury
 CP2K| Program compiled for                                               x86_64
 CP2K| Data directory path                            /home/rmeli/git/cp2k/data/
 CP2K| Input file name                ../tests/QS/regtest-md-extrap/extrap-4.inp

 GLOBAL| Force Environment number                                              1
 GLOBAL| Basis set file name                                      GTH_BASIS_SETS
 GLOBAL| Potential file name                                           POTENTIAL
 GLOBAL| MM Potential file name                                     MM_POTENTIAL
 GLOBAL| Coordinate file name                                      __STD_INPUT__
 GLOBAL| Method name                                                        CP2K
 GLOBAL| Project name                                                   extrap-4
 GLOBAL| Run type                                                             MD
 GLOBAL| FFT library                                                       FFTW3
 GLOBAL| Diagonalization library                                            DLAF
 GLOBAL| DGEMM library                                                      BLAS
 GLOBAL| Minimum number of eigenvectors for DLAF usage                         2
 GLOBAL| Orthonormality check for eigenvectors                          DISABLED
 GLOBAL| Matrix multiplication library                                 ScaLAPACK
 GLOBAL| All-to-all communication in single precision                          F
 GLOBAL| FFTs using library dependent lengths                                  F
 GLOBAL| Grid backend                                                       AUTO
 GLOBAL| Global print level                                               MEDIUM
 GLOBAL| MPI I/O enabled                                                       T
 GLOBAL| Total number of message passing processes                             1
 GLOBAL| Number of threads for this process                                   24
 GLOBAL| This output is from process                                           0
 GLOBAL| Stack size for threads created by OpenMP (OMP_STACKSIZE)        default
 GLOBAL| CPU model name                       AMD Ryzen 9 7900 12-Core Processor
 GLOBAL| CPUID                                                              1003

 MEMORY| system memory details [Kb]
 MEMORY|                        rank 0           min           max       average
 MEMORY| MemTotal             64948204      64948204      64948204      64948204
 MEMORY| MemFree              49348252      49348252      49348252      49348252
 MEMORY| Buffers                433724        433724        433724        433724
 MEMORY| Cached               10410484      10410484      10410484      10410484
 MEMORY| Slab                   802400        802400        802400        802400
 MEMORY| SReclaimable           492200        492200        492200        492200
 MEMORY| MemLikelyFree        60684660      60684660      60684660      60684660


 *** Fundamental physical constants (SI units) ***

 *** Literature: B. J. Mohr and B. N. Taylor,
 ***             CODATA recommended values of the fundamental physical
 ***             constants: 2006, Web Version 5.1
 ***             http://physics.nist.gov/constants

 Speed of light in vacuum [m/s]                             2.99792458000000E+08
 Magnetic constant or permeability of vacuum [N/A**2]       1.25663706143592E-06
 Electric constant or permittivity of vacuum [F/m]          8.85418781762039E-12
 Planck constant (h) [J*s]                                  6.62606896000000E-34
 Planck constant (h-bar) [J*s]                              1.05457162825177E-34
 Elementary charge [C]                                      1.60217648700000E-19
 Electron mass [kg]                                         9.10938215000000E-31
 Electron g factor [ ]                                     -2.00231930436220E+00
 Proton mass [kg]                                           1.67262163700000E-27
 Fine-structure constant                                    7.29735253760000E-03
 Rydberg constant [1/m]                                     1.09737315685270E+07
 Avogadro constant [1/mol]                                  6.02214179000000E+23
 Boltzmann constant [J/K]                                   1.38065040000000E-23
 Atomic mass unit [kg]                                      1.66053878200000E-27
 Bohr radius [m]                                            5.29177208590000E-11

 *** Conversion factors ***

 [u] -> [a.u.]                                              1.82288848426455E+03
 [Angstrom] -> [Bohr] = [a.u.]                              1.88972613288564E+00
 [a.u.] = [Bohr] -> [Angstrom]                              5.29177208590000E-01
 [a.u.] -> [s]                                              2.41888432650478E-17
 [a.u.] -> [fs]                                             2.41888432650478E-02
 [a.u.] -> [J]                                              4.35974393937059E-18
 [a.u.] -> [N]                                              8.23872205491840E-08
 [a.u.] -> [K]                                              3.15774647902944E+05
 [a.u.] -> [kJ/mol]                                         2.62549961709828E+03
 [a.u.] -> [kcal/mol]                                       6.27509468713739E+02
 [a.u.] -> [Pa]                                             2.94210107994716E+13
 [a.u.] -> [bar]                                            2.94210107994716E+08
 [a.u.] -> [atm]                                            2.90362800883016E+08
 [a.u.] -> [eV]                                             2.72113838565563E+01
 [a.u.] -> [Hz]                                             6.57968392072181E+15
 [a.u.] -> [1/cm] (wave numbers)                            2.19474631370540E+05
 [a.u./Bohr**2] -> [1/cm]                                   5.14048714338585E+03
 

 CELL_TOP| Volume [angstrom^3]:                                       240.000000
 CELL_TOP| Vector a [angstrom    15.000     0.000     0.000   |a| =    15.000000
 CELL_TOP| Vector b [angstrom     0.000     4.000     0.000   |b| =     4.000000
 CELL_TOP| Vector c [angstrom     0.000     0.000     4.000   |c| =     4.000000
 CELL_TOP| Angle (b,c), alpha [degree]:                                90.000000
 CELL_TOP| Angle (a,c), beta  [degree]:                                90.000000
 CELL_TOP| Angle (a,b), gamma [degree]:                                90.000000
 CELL_TOP| Numerically orthorhombic:                                         YES
 CELL_TOP| Periodicity                                                       XYZ

 GENERATE|  Preliminary Number of Bonds generated:                             0
 GENERATE|  Achieved consistency in connectivity generation.

 CELL| Volume [angstrom^3]:                                           240.000000
 CELL| Vector a [angstrom]:      15.000     0.000     0.000   |a| =    15.000000
 CELL| Vector b [angstrom]:       0.000     4.000     0.000   |b| =     4.000000
 CELL| Vector c [angstrom]:       0.000     0.000     4.000   |c| =     4.000000
 CELL| Angle (b,c), alpha [degree]:                                    90.000000
 CELL| Angle (a,c), beta  [degree]:                                    90.000000
 CELL| Angle (a,b), gamma [degree]:                                    90.000000
 CELL| Numerically orthorhombic:                                             YES
 CELL| Periodicity                                                           XYZ

 CELL_REF| Volume [angstrom^3]:                                       240.000000
 CELL_REF| Vector a [angstrom    15.000     0.000     0.000   |a| =    15.000000
 CELL_REF| Vector b [angstrom     0.000     4.000     0.000   |b| =     4.000000
 CELL_REF| Vector c [angstrom     0.000     0.000     4.000   |c| =     4.000000
 CELL_REF| Angle (b,c), alpha [degree]:                                90.000000
 CELL_REF| Angle (a,c), beta  [degree]:                                90.000000
 CELL_REF| Angle (a,b), gamma [degree]:                                90.000000
 CELL_REF| Numerically orthorhombic:                                         YES
 CELL_REF| Periodicity                                                       XYZ

 *******************************************************************************
 *******************************************************************************
 **                                                                           **
 **     #####                         ##              ##                      **
 **    ##   ##            ##          ##              ##                      **
 **   ##     ##                       ##            ######                    **
 **   ##     ##  ##   ##  ##   #####  ##  ##   ####   ##    #####    #####    **
 **   ##     ##  ##   ##  ##  ##      ## ##   ##      ##   ##   ##  ##   ##   **
 **   ##  ## ##  ##   ##  ##  ##      ####     ###    ##   ######   ######    **
 **    ##  ###   ##   ##  ##  ##      ## ##      ##   ##   ##       ##        **
 **     #######   #####   ##   #####  ##  ##  ####    ##    #####   ##        **
 **           ##                                                    ##        **
 **                                                                           **
 **                                                ... make the atoms dance   **
 **                                                                           **
 **            Copyright (C) by CP2K developers group (2000-2023)             **
 **                      J. Chem. Phys. 152, 194103 (2020)                    **
 **                                                                           **
 *******************************************************************************

 DFT| Spin restricted Kohn-Sham (RKS) calculation                            RKS
 DFT| Multiplicity                                                             1
 DFT| Number of spin states                                                    1
 DFT| Charge                                                                   0
 DFT| Self-interaction correction (SIC)                                       NO
 DFT| Cutoffs: density                                              1.000000E-10
 DFT|          gradient                                             1.000000E-10
 DFT|          tau                                                  1.000000E-10
 DFT|          cutoff_smoothing_range                               0.000000E+00
 DFT| XC density smoothing                                                  NONE
 DFT| XC derivatives                                                          PW

 FUNCTIONAL| PADE:
 FUNCTIONAL| S. Goedecker, M. Teter and J. Hutter, Phys. Rev. B 54, 1703 (1996) 


 QS| Method:                                                                 GPW
 QS| Density plane wave grid type                        NON-SPHERICAL FULLSPACE
 QS| Number of grid levels:                                                    4
 QS| Density cutoff [a.u.]:                                                 60.0
 QS| Multi grid cutoff [a.u.]: 1) grid level                                60.0
 QS|                           2) grid level                                20.0
 QS|                           3) grid level                                 6.7
 QS|                           4) grid level                                 2.2
 QS| Grid level progression factor:                                          3.0
 QS| Relative density cutoff [a.u.]:                                        20.0
 QS| Interaction thresholds: eps_pgf_orb:                                3.2E-03
 QS|                         eps_filter_matrix:                          0.0E+00
 QS|                         eps_core_charge:                            1.0E-07
 QS|                         eps_rho_gspace:                             1.0E-05
 QS|                         eps_rho_rspace:                             1.0E-05
 QS|                         eps_gvg_rspace:                             3.2E-03
 QS|                         eps_ppl:                                    1.0E-02
 QS|                         eps_ppnl:                                   3.2E-05


 ATOMIC KIND INFORMATION

  1. Atomic kind: O                                     Number of atoms:       2

     Orbital Basis Set                                                  dZVp-GTH

       Number of orbital shell sets:                                           2
       Number of orbital shells:                                               5
       Number of primitive Cartesian functions:                                5
       Number of Cartesian basis functions:                                   14
       Number of spherical basis functions:                                   13
       Norm type:                                                              2

       Normalised Cartesian orbitals:

                        Set   Shell   Orbital            Exponent    Coefficient

                          1       1    2s                8.304386       0.526521
                                                         2.457948      -0.055011
                                                         0.759737      -0.404341
                                                         0.213639      -0.086026

                          1       2    3s                8.304386       0.000000
                                                         2.457948       0.000000
                                                         0.759737       0.000000
                                                         0.213639       0.223960

                          1       3    3px               8.304386      -2.000755
                                                         2.457948      -1.321076
                                                         0.759737      -0.480332
                                                         0.213639      -0.078647
                          1       3    3py               8.304386      -2.000755
                                                         2.457948      -1.321076
                                                         0.759737      -0.480332
                                                         0.213639      -0.078647
                          1       3    3pz               8.304386      -2.000755
                                                         2.457948      -1.321076
                                                         0.759737      -0.480332
                                                         0.213639      -0.078647

                          1       4    4px               8.304386       0.000000
                                                         2.457948       0.000000
                                                         0.759737       0.000000
                                                         0.213639       0.207033
                          1       4    4py               8.304386       0.000000
                                                         2.457948       0.000000
                                                         0.759737       0.000000
                                                         0.213639       0.207033
                          1       4    4pz               8.304386       0.000000
                                                         2.457948       0.000000
                                                         0.759737       0.000000
                                                         0.213639       0.207033

                          2       1    3dx2              1.185000       2.215218
                          2       1    3dxy              1.185000       3.836871
                          2       1    3dxz              1.185000       3.836871
                          2       1    3dy2              1.185000       2.215218
                          2       1    3dyz              1.185000       3.836871
                          2       1    3dz2              1.185000       2.215218

       Atomic covalent radius [Angstrom]:                                  0.730

       Atomic van der Waals radius [Angstrom]:                             1.520

     GTH Potential information for                                   GTH-PADE-q6

       Description:                       Goedecker-Teter-Hutter pseudopotential
                                           Goedecker et al., PRB 54, 1703 (1996)
                                          Hartwigsen et al., PRB 58, 3641 (1998)
                                                      Krack, TCA 114, 145 (2005)

       Gaussian exponent of the core charge distribution:               8.154466
       Electronic configuration (s p d ...):                               2   4

       Parameters of the local part of the GTH pseudopotential:

                          rloc        C1          C2          C3          C4
                        0.247621  -16.580318    2.395701

       Parameters of the non-local part of the GTH pseudopotential:

                   l      r(l)      h(i,j,l)

                   0    0.221786   18.266917
                   1    0.256829

  2. Atomic kind: H                                     Number of atoms:       4

     Orbital Basis Set                                                  dZVp-GTH

       Number of orbital shell sets:                                           2
       Number of orbital shells:                                               3
       Number of primitive Cartesian functions:                                5
       Number of Cartesian basis functions:                                    5
       Number of spherical basis functions:                                    5
       Norm type:                                                              2

       Normalised Cartesian orbitals:

                        Set   Shell   Orbital            Exponent    Coefficient

                          1       1    1s                8.374435      -0.099425
                                                         1.805868      -0.148088
                                                         0.485253      -0.165568
                                                         0.165824      -0.102436

                          1       2    2s                8.374435       0.000000
                                                         1.805868       0.000000
                                                         0.485253       0.000000
                                                         0.165824       0.185202

                          2       1    2px               0.727000       0.956881
                          2       1    2py               0.727000       0.956881
                          2       1    2pz               0.727000       0.956881

       Atomic covalent radius [Angstrom]:                                  0.320

       Atomic van der Waals radius [Angstrom]:                             1.090

     GTH Potential information for                                   GTH-PADE-q1

       Description:                       Goedecker-Teter-Hutter pseudopotential
                                           Goedecker et al., PRB 54, 1703 (1996)
                                          Hartwigsen et al., PRB 58, 3641 (1998)
                                                      Krack, TCA 114, 145 (2005)

       Gaussian exponent of the core charge distribution:              12.500000
       Electronic configuration (s p d ...):                                   1

       Parameters of the local part of the GTH pseudopotential:

                          rloc        C1          C2          C3          C4
                        0.200000   -4.180237    0.725075


 MOLECULE KIND INFORMATION


 All atoms are their own molecule, skipping detailed information


 TOTAL NUMBERS AND MAXIMUM NUMBERS

  Total number of            - Atomic kinds:                                   2
                             - Atoms:                                          6
                             - Shell sets:                                    12
                             - Shells:                                        22
                             - Primitive Cartesian functions:                 30
                             - Cartesian basis functions:                     48
                             - Spherical basis functions:                     46

  Maximum angular momentum of- Orbital basis functions:                        2
                             - Local part of the GTH pseudopotential:          2
                             - Non-local part of the GTH pseudopotential:      0


 MODULE QUICKSTEP: ATOMIC COORDINATES IN ANGSTROM

   Atom Kind Element         X             Y             Z       Z(eff)     Mass
      1    1 O     8      0.000000      0.000000     -0.065587   6.0000  15.9994
      2    2 H     1      0.000000     -0.757136      0.520545   1.0000   1.0079
      3    2 H     1      0.000000      0.757136      0.520545   1.0000   1.0079
      4    1 O     8      1.000000      0.000000     -0.065587   6.0000  15.9994
      5    2 H     1      1.000000     -0.757136      0.520545   1.0000   1.0079
      6    2 H     1      1.000000      0.757136      0.520545   1.0000   1.0079



 SCF PARAMETERS         Density guess:                                    ATOMIC
                        --------------------------------------------------------
                        max_scf:                                              15
                        max_scf_history:                                       0
                        max_diis:                                              4
                        --------------------------------------------------------
                        eps_scf:                                        1.00E-05
                        eps_scf_history:                                0.00E+00
                        eps_diis:                                       1.00E-01
                        eps_eigval:                                     1.00E-05
                        --------------------------------------------------------
                        level_shift [a.u.]:                             0.000000
                        --------------------------------------------------------
                        Mixing method:                           DIRECT_P_MIXING
                        --------------------------------------------------------
                        No outer SCF

 PW_GRID| Information for grid number                                          1
 PW_GRID| Cutoff [a.u.]                                                     60.0
 PW_GRID| spherical cutoff:                                                   NO
 PW_GRID|   Bounds   1            -50      49                Points:         100
 PW_GRID|   Bounds   2            -13      13                Points:          27
 PW_GRID|   Bounds   3            -13      13                Points:          27
 PW_GRID| Volume element (a.u.^3)  0.2222E-01     Volume (a.u.^3)      1619.6003
 PW_GRID| Grid span                                                    FULLSPACE

 PW_GRID| Information for grid number                                          2
 PW_GRID| Number of the reference grid                                         1
 PW_GRID| Cutoff [a.u.]                                                     20.0
 PW_GRID| spherical cutoff:                                                   NO
 PW_GRID|   Bounds   1            -30      29                Points:          60
 PW_GRID|   Bounds   2             -7       7                Points:          15
 PW_GRID|   Bounds   3             -7       7                Points:          15
 PW_GRID| Volume element (a.u.^3)  0.1200         Volume (a.u.^3)      1619.6003
 PW_GRID| Grid span                                                    FULLSPACE

 PW_GRID| Information for grid number                                          3
 PW_GRID| Number of the reference grid                                         1
 PW_GRID| Cutoff [a.u.]                                                      6.7
 PW_GRID| spherical cutoff:                                                   NO
 PW_GRID|   Bounds   1            -18      17                Points:          36
 PW_GRID|   Bounds   2             -4       4                Points:           9
 PW_GRID|   Bounds   3             -4       4                Points:           9
 PW_GRID| Volume element (a.u.^3)  0.5554         Volume (a.u.^3)      1619.6003
 PW_GRID| Grid span                                                    FULLSPACE

 PW_GRID| Information for grid number                                          4
 PW_GRID| Number of the reference grid                                         1
 PW_GRID| Cutoff [a.u.]                                                      2.2
 PW_GRID| spherical cutoff:                                                   NO
 PW_GRID|   Bounds   1            -10       9                Points:          20
 PW_GRID|   Bounds   2             -3       2                Points:           6
 PW_GRID|   Bounds   3             -3       2                Points:           6
 PW_GRID| Volume element (a.u.^3)   2.249         Volume (a.u.^3)      1619.6003
 PW_GRID| Grid span                                                    FULLSPACE

 POISSON| Solver                                                        PERIODIC
 POISSON| Periodicity                                                        XYZ

 RS_GRID| Information for grid number                                          1
 RS_GRID|   Bounds   1            -50      49                Points:         100
 RS_GRID|   Bounds   2            -13      13                Points:          27
 RS_GRID|   Bounds   3            -13      13                Points:          27

 RS_GRID| Information for grid number                                          2
 RS_GRID|   Bounds   1            -30      29                Points:          60
 RS_GRID|   Bounds   2             -7       7                Points:          15
 RS_GRID|   Bounds   3             -7       7                Points:          15

 RS_GRID| Information for grid number                                          3
 RS_GRID|   Bounds   1            -18      17                Points:          36
 RS_GRID|   Bounds   2             -4       4                Points:           9
 RS_GRID|   Bounds   3             -4       4                Points:           9

 RS_GRID| Information for grid number                                          4
 RS_GRID|   Bounds   1            -10       9                Points:          20
 RS_GRID|   Bounds   2             -3       2                Points:           6
 RS_GRID|   Bounds   3             -3       2                Points:           6

 MD_PAR| Molecular dynamics protocol (MD input parameters)
 MD_PAR| Ensemble type                                                       NVE
 MD_PAR| Number of time steps                                                  2
 MD_PAR| Time step [fs]                                                 1.000000
 MD_PAR| Temperature [K]                                              300.000000
 MD_PAR| Temperature tolerance [K]                                      0.000000
 MD_PAR| Print MD information every                                    1 step(s)
 MD_PAR| File type   Print frequency [steps]                          File names
 MD_PAR| Coordinates          1                               extrap-4-pos-1.xyz
 MD_PAR| Velocities           1                               extrap-4-vel-1.xyz
 MD_PAR| Energies             1                                  extrap-4-1.ener
 MD_PAR| Dump                20                               extrap-4-1.restart

 ROT| Rotational analysis information
 ROT| Principal axes and moments of inertia [a.u.]
 ROT|                           1                   2                   3
 ROT| Eigenvalues      2.30529489519E+04   6.66442787357E+04   7.36818918032E+04
 ROT|      x              1.000000000000      0.000000000000      0.000000000000
 ROT|      y             -0.000000000000      1.000000000000      0.000000000000
 ROT|      z              0.000000000000     -0.000000000000      1.000000000000
 ROT| Number of rotovibrational vectors                                        6

 DOF| Calculation of degrees of freedom
 DOF| Number of atoms                                                          6
 DOF| Number of intramolecular constraints                                     0
 DOF| Number of intermolecular constraints                                     0
 DOF| Invariants (translations + rotations)                                    3
 DOF| Degrees of freedom                                                      15

 DOF| Restraints information
 DOF| Number of intramolecular restraints                                      0
 DOF| Number of intermolecular restraints                                      0

 MD_VEL| Velocities initialization
 MD_VEL| Initial temperature [K]                                 13826654.601093
 MD_VEL| COM velocity             0.1000000000     0.0000000000     0.0000000000

 Number of electrons:                                                         16
 Number of occupied orbitals:                                                  8
 Number of molecular orbitals:                                                 8

 Number of orbital functions:                                                 46
 Number of independent orbital functions:                                     46

 Extrapolation method: initial_guess

 Atomic guess: The first density matrix is obtained in terms of atomic orbitals
               and electronic configurations assigned to each atomic kind

 Guess for atomic kind: O

 Electronic structure
    Total number of core electrons                                          2.00
    Total number of valence electrons                                       6.00
    Total number of electrons                                               8.00
    Multiplicity                                                   not specified
    S   [  2.00] 2.00
    P      4.00


 *******************************************************************************
                  Iteration          Convergence                     Energy [au]
 *******************************************************************************
                          1        0.646148                     -15.636779223432
                          2        0.563412                     -15.645844244888
                          3        0.777097E-02                 -15.702646985470
                          4        0.181934E-02                 -15.702656239320
                          5        0.462182E-03                 -15.702656741718
                          6        0.259018E-03                 -15.702656765488
                          7        0.325657E-06                 -15.702656776372

 Energy components [Hartree]           Total Energy ::          -15.702656776372
                                        Band Energy ::           -2.982158449705
                                     Kinetic Energy ::           11.942299191168
                                   Potential Energy ::          -27.644955967539
                                      Virial (-V/T) ::            2.314877187802
                                        Core Energy ::          -26.240315922053
                                          XC Energy ::           -3.168822196518
                                     Coulomb Energy ::           13.706481342199
                       Total Pseudopotential Energy ::          -38.217118649442
                       Local Pseudopotential Energy ::          -39.522372198158
                    Nonlocal Pseudopotential Energy ::            1.305253548716
                                        Confinement ::            0.345035362212

 Orbital energies  State     L     Occupation   Energy[a.u.]          Energy[eV]

                       1     0          2.000      -0.854038          -23.239546

                       1     1          4.000      -0.318521           -8.667392


 Total Electron Density at R=0:                                         0.000667

 Guess for atomic kind: H

 Electronic structure
    Total number of core electrons                                          0.00
    Total number of valence electrons                                       1.00
    Total number of electrons                                               1.00
    Multiplicity                                                   not specified
    S      1.00


 *******************************************************************************
                  Iteration          Convergence                     Energy [au]
 *******************************************************************************
                          1        0.147171E-02                  -0.421723711027
                          2        0.157122E-03                  -0.421725945021
                          3        0.196312E-07                  -0.421725970773

 Energy components [Hartree]           Total Energy ::           -0.421725970773
                                        Band Energy ::           -0.187780976674
                                     Kinetic Energy ::            0.476586039475
                                   Potential Energy ::           -0.898312010248
                                      Virial (-V/T) ::            1.884889476070
                                        Core Energy ::           -0.480158516611
                                          XC Energy ::           -0.252039314035
                                     Coulomb Energy ::            0.310471859872
                       Total Pseudopotential Energy ::           -0.973399080031
                       Local Pseudopotential Energy ::           -0.973399080031
                    Nonlocal Pseudopotential Energy ::            0.000000000000
                                        Confinement ::            0.166545239452

 Orbital energies  State     L     Occupation   Energy[a.u.]          Energy[eV]

                       1     0          1.000      -0.187781           -5.109780


 Total Electron Density at R=0:                                         0.222989
 Re-scaling the density matrix to get the right number of electrons
                  # Electrons              Trace(P)               Scaling factor
                           16                16.031                        0.998


 SCF WAVEFUNCTION OPTIMIZATION

  Step     Update method      Time    Convergence         Total energy    Change
  ------------------------------------------------------------------------------
     1 P_Mix/Diag. 0.40E+00    0.1     0.97914970       -34.9609694785 -3.50E+01
     2 P_Mix/Diag. 0.40E+00    0.0     0.56122199       -34.4124044684  5.49E-01
     3 P_Mix/Diag. 0.40E+00    0.0     0.33877940       -34.0779883032  3.34E-01
     4 P_Mix/Diag. 0.40E+00    0.0     0.20443000       -33.8762009326  2.02E-01
     5 P_Mix/Diag. 0.40E+00    0.0     0.12307076       -33.7548396904  1.21E-01
     6 P_Mix/Diag. 0.40E+00    0.0     0.07398015       -33.6819447571  7.29E-02
     7 DIIS/Diag.  0.15E-02    0.0     0.04442314       -33.6381856002  4.38E-02
     8 DIIS/Diag.  0.27E-04    0.0     0.00007697       -33.5725236608  6.57E-02
     9 DIIS/Diag.  0.22E-04    0.0     0.00002719       -33.5725236614 -6.22E-10
    10 DIIS/Diag.  0.14E-04    0.0     0.00000690       -33.5725236617 -2.25E-10

  *** SCF run converged in    10 steps ***


  Electronic density on regular grids:        -15.9999088500        0.0000911500
  Core density on regular grids:               15.9999942707       -0.0000057293
  Total charge density on r-space grids:        0.0000854208
  Total charge density g-space grids:           0.0000854208

  Overlap energy of the core charge distribution:               0.00000146989411
  Self energy of the core charge distribution:                -87.66578109182967
  Core Hamiltonian energy:                                     28.06250398453315
  Hartree energy:                                              34.74269644365081
  Exchange-correlation energy:                                 -8.71194446791257

  Total energy:                                               -33.57252366166417

 !-----------------------------------------------------------------------------!
                     Mulliken Population Analysis

 #  Atom  Element  Kind  Atomic population                           Net charge
       1     O        1          5.564652                              0.435348
       2     H        2          1.212007                             -0.212007
       3     H        2          1.212001                             -0.212001
       4     O        1          5.596737                              0.403263
       5     H        2          1.207303                             -0.207303
       6     H        2          1.207299                             -0.207299
 # Total charge                             16.000000                  0.000000

 !-----------------------------------------------------------------------------!

 !-----------------------------------------------------------------------------!
                           Hirshfeld Charges

  #Atom  Element  Kind  Ref Charge     Population                    Net charge
      1       O      1       6.000          6.739                        -0.739
      2       H      2       1.000          0.482                         0.518
      3       H      2       1.000          0.482                         0.518
      4       O      1       6.000          6.744                        -0.744
      5       H      2       1.000          0.482                         0.518
      6       H      2       1.000          0.482                         0.518

  Total Charge                                                            0.590
 !-----------------------------------------------------------------------------!

 ENERGY| Total FORCE_EVAL ( QS ) energy [a.u.]:              -33.572523661729669

 MD_INI| MD initialization
 MD_INI| Potential energy [hartree]                          -0.335725236617E+02
 MD_INI| Kinetic energy [hartree]                             0.656796929056E+03
 MD_INI| Temperature [K]                                         27653309.202187
 MD_INI| Cell volume [bohr^3]                                 1.619600299942E+03
 MD_INI| Cell volume [ang^3]                                  2.400000000000E+02
 MD_INI| Cell lengths [bohr]      2.83458920E+01  7.55890453E+00  7.55890453E+00
 MD_INI| Cell lengths [ang]       1.50000000E+01  4.00000000E+00  4.00000000E+00
 MD_INI| Cell angles [deg]        9.00000000E+01  9.00000000E+01  9.00000000E+01

 Number of electrons:                                                         16
 Number of occupied orbitals:                                                  8
 Number of molecular orbitals:                                                 8

 Number of orbital functions:                                                 46
 Number of independent orbital functions:                                     46

 Extrapolation method: previous_wf


 SCF WAVEFUNCTION OPTIMIZATION

  Step     Update method      Time    Convergence         Total energy    Change
  ------------------------------------------------------------------------------
     1 P_Mix/Diag. 0.40E+00    0.0     1.29174532       -33.3589216709 -3.34E+01
     2 P_Mix/Diag. 0.40E+00    0.0     0.77515013       -33.7434132761 -3.84E-01
     3 P_Mix/Diag. 0.40E+00    0.0     0.46507999       -33.9651604279 -2.22E-01
     4 P_Mix/Diag. 0.40E+00    0.0     0.27905186       -34.0952528726 -1.30E-01
     5 P_Mix/Diag. 0.40E+00    0.0     0.16743293       -34.1724766599 -7.72E-02
     6 P_Mix/Diag. 0.40E+00    0.1     0.10046139       -34.2185938935 -4.61E-02
     7 P_Mix/Diag. 0.40E+00    0.0     0.06027796       -34.2462131726 -2.76E-02
     8 DIIS/Diag.  0.18E-02    0.0     0.03616873       -34.2627749629 -1.66E-02
     9 DIIS/Diag.  0.42E-04    0.0     0.00014353       -34.2876187705 -2.48E-02
    10 DIIS/Diag.  0.11E-04    0.0     0.00001954       -34.2876187759 -5.45E-09
    11 DIIS/Diag.  0.13E-04    0.0     0.00001037       -34.2876187759 -4.70E-12
    12 DIIS/Diag.  0.19E-05    0.0     0.00000190       -34.2876187761 -1.63E-10

  *** SCF run converged in    12 steps ***


  Electronic density on regular grids:        -15.9996718811        0.0003281189
  Core density on regular grids:               15.9996601550       -0.0003398450
  Total charge density on r-space grids:       -0.0000117261
  Total charge density g-space grids:          -0.0000117261

  Overlap energy of the core charge distribution:               0.00000002906045
  Self energy of the core charge distribution:                -87.66578109182967
  Core Hamiltonian energy:                                     25.53022392760894
  Hartree energy:                                              36.08916540615571
  Exchange-correlation energy:                                 -8.24122704707987

  Total energy:                                               -34.28761877608444

 !-----------------------------------------------------------------------------!
                     Mulliken Population Analysis

 #  Atom  Element  Kind  Atomic population                           Net charge
       1     O        1          6.500422                             -0.500422
       2     H        2          0.749793                              0.250207
       3     H        2          0.749786                              0.250214
       4     O        1          6.500619                             -0.500619
       5     H        2          0.749694                              0.250306
       6     H        2          0.749687                              0.250313
 # Total charge                             16.000000                 -0.000000

 !-----------------------------------------------------------------------------!

 !-----------------------------------------------------------------------------!
                           Hirshfeld Charges

  #Atom  Element  Kind  Ref Charge     Population                    Net charge
      1       O      1       6.000          7.058                        -1.058
      2       H      2       1.000          0.429                         0.571
      3       H      2       1.000          0.429                         0.571
      4       O      1       6.000          7.057                        -1.057
      5       H      2       1.000          0.429                         0.571
      6       H      2       1.000          0.429                         0.571

  Total Charge                                                            0.169
 !-----------------------------------------------------------------------------!

 ENERGY| Total FORCE_EVAL ( QS ) energy [a.u.]:              -34.287618776087740

 MD_VEL| Centre of mass motion (COM)
 MD_VEL| VCOM [a.u.]              0.0997505667     0.0000001071    -0.0001272189

 MD| ***************************************************************************
 MD| Step number                                                               1
 MD| Time [fs]                                                          1.000000
 MD| Conserved quantity [hartree]                             0.627369654722E+03
 MD| ---------------------------------------------------------------------------
 MD|                                          Instantaneous             Averages
 MD| CPU time per MD step [s]                      0.723055             0.723055
 MD| Energy drift per atom [K]           0.218160774509E+06   0.000000000000E+00
 MD| Potential energy [hartree]         -0.342876187761E+02  -0.342876187761E+02
 MD| Kinetic energy [hartree]            0.661657273499E+03   0.661657273499E+03
 MD| Temperature [K]                        27857945.676188      27857945.676188
 MD| ***************************************************************************
 MD| Estimated peak process memory after this step [MiB]                     357

 Number of electrons:                                                         16
 Number of occupied orbitals:                                                  8
 Number of molecular orbitals:                                                 8

 Number of orbital functions:                                                 46
 Number of independent orbital functions:                                     46

 Extrapolation method: mo linear


 SCF WAVEFUNCTION OPTIMIZATION

  Step     Update method      Time    Convergence         Total energy    Change
  ------------------------------------------------------------------------------
     1 P_Mix/Diag. 0.40E+00    0.0     1.61822775       -34.0589377555 -3.41E+01
     2 P_Mix/Diag. 0.40E+00    0.0     1.68227556       -33.6662162754  3.93E-01
     3 P_Mix/Diag. 0.40E+00    0.0     4.42495317       -32.3133800446  1.35E+00
     4 P_Mix/Diag. 0.40E+00    0.0     4.68245891       -26.5874902207  5.73E+00
     5 P_Mix/Diag. 0.40E+00    0.0     3.57557361       -27.0288480429 -4.41E-01
     6 P_Mix/Diag. 0.40E+00    0.0     3.55459220       -25.0135839830  2.02E+00
     7 P_Mix/Diag. 0.40E+00    0.0     3.49554125       -25.0581831119 -4.46E-02
     8 P_Mix/Diag. 0.40E+00    0.0     3.31720330       -24.3582525211  7.00E-01
     9 P_Mix/Diag. 0.40E+00    0.0     3.36556052       -24.3474801409  1.08E-02
    10 P_Mix/Diag. 0.40E+00    0.0     3.25185611       -24.1044993621  2.43E-01
    11 P_Mix/Diag. 0.40E+00    0.0     3.29255411       -24.0924367709  1.21E-02
    12 P_Mix/Diag. 0.40E+00    0.0     3.23150026       -24.0089171020  8.35E-02
    13 P_Mix/Diag. 0.40E+00    0.0     3.25949257       -24.0009525577  7.96E-03
    14 P_Mix/Diag. 0.40E+00    0.0     3.22472344       -23.9734077412  2.75E-02
    15 P_Mix/Diag. 0.40E+00    0.0     3.24581115       -23.9681297849  5.28E-03

  Leaving inner SCF loop after reaching    15 steps.


  Electronic density on regular grids:        -16.0000748594       -0.0000748594
  Core density on regular grids:               15.9995498446       -0.0004501554
  Total charge density on r-space grids:       -0.0005250148
  Total charge density g-space grids:          -0.0005250148

  Overlap energy of the core charge distribution:               0.00000000940082
  Self energy of the core charge distribution:                -87.66578109182967
  Core Hamiltonian energy:                                     31.61410549848579
  Hartree energy:                                              39.54758589591297
  Exchange-correlation energy:                                 -7.46404009684865

  Total energy:                                               -23.96812978487875

 *** WARNING in qs_scf.F:602 :: SCF run NOT converged ***


 !-----------------------------------------------------------------------------!
                     Mulliken Population Analysis

 #  Atom  Element  Kind  Atomic population                           Net charge
       1     O        1          0.000001                              5.999999
       2     H        2          0.000000                              1.000000
       3     H        2          0.000000                              1.000000
       4     O        1         10.752640                             -4.752640
       5     H        2          2.623677                             -1.623677
       6     H        2          2.623681                             -1.623681
 # Total charge                             16.000000                 -0.000000

 !-----------------------------------------------------------------------------!

 !-----------------------------------------------------------------------------!
                           Hirshfeld Charges

  #Atom  Element  Kind  Ref Charge     Population                    Net charge
      1       O      1       6.000          0.000                         6.000
      2       H      2       1.000          0.000                         1.000
      3       H      2       1.000          0.000                         1.000
      4       O      1       6.000         12.814                        -6.814
      5       H      2       1.000          1.129                        -0.129
      6       H      2       1.000          1.129                        -0.129

  Total Charge                                                            0.927
 !-----------------------------------------------------------------------------!

 ENERGY| Total FORCE_EVAL ( QS ) energy [a.u.]:               20.477112479685573

 MD_VEL| Centre of mass motion (COM)
 MD_VEL| VCOM [a.u.]              0.0997967555    -0.0000000989    -0.0002238169

 MD| ***************************************************************************
 MD| Step number                                                               2
 MD| Time [fs]                                                          2.000000
 MD| Conserved quantity [hartree]                             0.702919481246E+03
 MD| ---------------------------------------------------------------------------
 MD|                                          Instantaneous             Averages
 MD| CPU time per MD step [s]                      0.433089             0.578072
 MD| Energy drift per atom [K]           0.419428075277E+07   0.209714037638E+07
 MD| Potential energy [hartree]          0.204771124797E+02  -0.690525314820E+01
 MD| Kinetic energy [hartree]            0.682442368766E+03   0.672049821132E+03
 MD| Temperature [K]                        28733066.494822      28295506.085505
 MD| ***************************************************************************
 MD| Estimated peak process memory after this step [MiB]                     362

 -------------------------------------------------------------------------------
 -                                                                             -
 -                                DBCSR STATISTICS                             -
 -                                                                             -
 -------------------------------------------------------------------------------
 COUNTER                                    TOTAL       BLAS       SMM       ACC
 flops     5 x     5 x     8               132000       0.0%    100.0%      0.0%
 flops    13 x     5 x     8               145600       0.0%    100.0%      0.0%
 flops     5 x    13 x     8               145600       0.0%    100.0%      0.0%
 flops    13 x    13 x     8               340704       0.0%    100.0%      0.0%
 flops inhomo. stacks                           0       0.0%      0.0%      0.0%
 flops total                       763.904000E+03       0.0%    100.0%      0.0%
 flops max/rank                    763.904000E+03       0.0%    100.0%      0.0%
 matmuls inhomo. stacks                         0       0.0%      0.0%      0.0%
 matmuls total                                736       0.0%    100.0%      0.0%
 number of processed stacks                   448       0.0%    100.0%      0.0%
 average stack size                                     0.0       1.6       0.0
 marketing flops                     1.421952E+06
 -------------------------------------------------------------------------------
 # multiplications                             42
 max memory usage/rank              14.908514E+09
 # max total images/rank                        1
 # max 3D layers                                1
 # MPI messages exchanged                       0
 -------------------------------------------------------------------------------
 -                                                                             -
 -                      DBCSR MESSAGE PASSING PERFORMANCE                      -
 -                                                                             -
 -------------------------------------------------------------------------------
 ROUTINE             CALLS      AVE VOLUME [Bytes]
 MP_Bcast                5                     12.
 MP_Allreduce          318                      9.
 MP_Alltoall          1287                   7524.
 MP_ISend              168                    120.
 MP_IRecv              168                    120.
 -------------------------------------------------------------------------------

 -------------------------------------------------------------------------------
 -                                                                             -
 -                                DBM STATISTICS                               -
 -                                                                             -
 -------------------------------------------------------------------------------
    M  x    N  x    K                                          COUNT     PERCENT
 -------------------------------------------------------------------------------

 -------------------------------------------------------------------------------
 -                                                                             -
 -                                GRID STATISTICS                              -
 -                                                                             -
 -------------------------------------------------------------------------------
 LP    KERNEL             BACKEND                              COUNT     PERCENT
 1     collocate ortho    CPU                                   9692      19.82%
 1     integrate ortho    CPU                                   9526      19.48%
 0     collocate ortho    CPU                                   7576      15.49%
 0     integrate ortho    CPU                                   6990      14.29%
 2     integrate ortho    CPU                                   5733      11.72%
 2     collocate ortho    CPU                                   5400      11.04%
 3     integrate ortho    CPU                                   1951       3.99%
 3     collocate ortho    CPU                                   1660       3.39%
 4     integrate ortho    CPU                                    212       0.43%
 4     collocate ortho    CPU                                     91       0.19%
 0     collocate general  CPU                                     36       0.07%
 0     integrate general  CPU                                     18       0.04%
 1     integrate general  CPU                                     18       0.04%
 5     integrate ortho    CPU                                      7       0.01%
 -------------------------------------------------------------------------------

 MEMORY| Estimated peak process memory [MiB]                                 363

 -------------------------------------------------------------------------------
 ----                             MULTIGRID INFO                            ----
 -------------------------------------------------------------------------------
 count for grid        1:           3307          cutoff [a.u.]           60.00
 count for grid        2:           1233          cutoff [a.u.]           20.00
 count for grid        3:            160          cutoff [a.u.]            6.67
 count for grid        4:              0          cutoff [a.u.]            2.22
 total gridlevel count  :           4700

 -------------------------------------------------------------------------------
 -                                                                             -
 -                         MESSAGE PASSING PERFORMANCE                         -
 -                                                                             -
 -------------------------------------------------------------------------------

 ROUTINE             CALLS      AVE VOLUME [Bytes]
 MP_Group                4
 MP_Bcast               76                    181.
 MP_Allreduce          837                     18.
 MP_Sync                41
 MP_comm_split          37
 -------------------------------------------------------------------------------


 -------------------------------------------------------------------------------
 -                                                                             -
 -                           R E F E R E N C E S                               -
 -                                                                             -
 -------------------------------------------------------------------------------
 
 CP2K version 2023.2 (Development Version), the CP2K developers group (2023).
 CP2K is freely available from https://www.cp2k.org/ .

 Kuehne,Thomas D.; Iannuzzi,Marcella; Del Ben,Mauro;
 Rybkin,Vladimir V.; Seewald,Patrick; Stein,Frederick; Laino,Teodoro;
 Khaliullin,Rustam Z.; Schuett,Ole; Schiffmann,Florian; Golze,Dorothea;
 Wilhelm,Jan; Chulkov,Sergey; Bani-Hashemian,Mohammad Hossein;
 Weber,Valery; Borstnik,Urban; Taillefumier,Mathieu;
 Jakobovits,Alice Shoshana; Lazzaro,Alfio; Pabst,Hans; Mueller,Tiziano;
 Schade,Robert; Guidon,Manuel; Andermatt,Samuel; Holmberg,Nico;
 Schenter,Gregory K.; Hehn,Anna; Bussy,Augustin; Belleflamme,Fabian;
 Tabacchi,Gloria; Gloess,Andreas; Lass,Michael; Bethune,Iain;
 Mundy,Christopher J.; Plessl,Christian; Watkins,Matt;
 VandeVondele,Joost; Krack,Matthias; Hutter,Juerg. 
 The Journal of Chemical Physics, 152 (19), (2020). 
 CP2K: An electronic structure and molecular dynamics software package -
 Quickstep: Efficient and accurate electronic structure calculations.
 https://doi.org/10.1063/5.0007045

 Schuett, Ole; Messmer, Peter; Hutter, Juerg; VandeVondele, Joost. 
 Electronic Structure Calculations on Graphics Processing Units, John
 Wiley & Sons, Ltd, 173-190 (2016). 
 GPU-Accelerated Sparse Matrix-Matrix Multiplication for
 Linear Scaling Density Functional Theory.
 https://doi.org/10.1002/9781118670712.ch8

 Borstnik, U; VandeVondele, J; Weber, V; Hutter, J. 
 PARALLEL COMPUTING, 40 (5-6), 47-58 (2014). 
 Sparse matrix multiplication: The distributed block-compressed sparse
 row library.
 https://doi.org/10.1016/j.parco.2014.03.012

 Hutter, J; Iannuzzi, M; Schiffmann, F; VandeVondele, J. 
 WIREs Comput Mol Sci., 4 (1), 15-25 (2014). 
 CP2K: atomistic simulations of condensed matter systems.
 https://doi.org/10.1002/wcms.1159

 Krack, M. 
 THEORETICAL CHEMISTRY ACCOUNTS, 114 (1-3), 145-152 (2005). 
 Pseudopotentials for H to Kr optimized for gradient-corrected
 exchange-correlation functionals.
 https://doi.org/10.1007/s00214-005-0655-y

 VandeVondele, J; Krack, M; Mohamed, F; Parrinello, M; Chassaing, T;
 Hutter, J. COMPUTER PHYSICS COMMUNICATIONS, 167 (2), 103-128 (2005). 
 QUICKSTEP: Fast and accurate density functional calculations using a
 mixed Gaussian and plane waves approach.
 https://doi.org/10.1016/j.cpc.2004.12.014

 Frigo, M; Johnson, SG. 
 PROCEEDINGS OF THE IEEE, 93 (2), 216-231 (2005). 
 The design and implementation of FFTW3.
 https://doi.org/10.1109/JPROC.2004.840301

 Hartwigsen, C; Goedecker, S; Hutter, J. 
 PHYSICAL REVIEW B, 58 (7), 3641-3662 (1998). 
 Relativistic separable dual-space Gaussian pseudopotentials from H to Rn.
 https://doi.org/10.1103/PhysRevB.58.3641

 Lippert, G; Hutter, J; Parrinello, M. 
 MOLECULAR PHYSICS, 92 (3), 477-487 (1997). 
 A hybrid Gaussian and plane wave density functional scheme.
 https://doi.org/10.1080/002689797170220

 Goedecker, S; Teter, M; Hutter, J. 
 PHYSICAL REVIEW B, 54 (3), 1703-1710 (1996). 
 Separable dual-space Gaussian pseudopotentials.
 https://doi.org/10.1103/PhysRevB.54.1703


 -------------------------------------------------------------------------------
 -                                                                             -
 -                                T I M I N G                                  -
 -                                                                             -
 -------------------------------------------------------------------------------
 SUBROUTINE                       CALLS  ASD         SELF TIME        TOTAL TIME
                                MAXIMUM       AVERAGE  MAXIMUM  AVERAGE  MAXIMUM
 CP2K                                 1  1.0    0.011    0.011    1.188    1.188
 qs_mol_dyn_low                       1  2.0    0.001    0.001    1.159    1.159
 qs_forces                            3  3.7    0.000    0.000    1.153    1.153
 qs_energies                          3  4.7    0.000    0.000    1.140    1.140
 scf_env_do_scf                       3  5.7    0.000    0.000    1.094    1.094
 scf_env_do_scf_inner_loop           37  6.7    0.001    0.001    1.094    1.094
 qs_scf_new_mos                      37  7.7    0.000    0.000    0.819    0.819
 velocity_verlet                      2  3.0    0.000    0.000    0.813    0.813
 eigensolver                         37  8.7    0.001    0.001    0.661    0.661
 cp_fm_diag_dlaf                     37  9.7    0.000    0.000    0.658    0.658
 cp_fm_diag_dlaf_base                37 10.7    0.000    0.000    0.654    0.654
 pdsyevd_dlaf                        37 11.7    0.654    0.654    0.654    0.654
 pw_transfer                        483 11.8    0.007    0.007    0.178    0.178
 fft_wrap_pw1pw2                    403 12.8    0.001    0.001    0.166    0.166
 rebuild_ks_matrix                   40  8.5    0.000    0.000    0.154    0.154
 qs_ks_build_kohn_sham_matrix        40  9.5    0.001    0.001    0.154    0.154
 fft_wrap_pw1pw2_60                 163 13.3    0.007    0.007    0.146    0.146
 qs_ks_update_qs_env                 37  7.7    0.000    0.000    0.144    0.144
 qs_rho_update_rho_low               40  7.8    0.000    0.000    0.140    0.140
 calculate_rho_elec                  40  8.8    0.009    0.009    0.140    0.140
 calculate_dm_sparse                 39  8.7    0.000    0.000    0.138    0.138
 fft3d_s                            404 14.8    0.120    0.120    0.130    0.130
 density_rs2pw                       40  9.8    0.001    0.001    0.091    0.091
 dbcsr_set                          181 10.6    0.000    0.000    0.083    0.083
 dbcsr_zero                         181 11.6    0.083    0.083    0.083    0.083
 sum_up_and_integrate                40 10.5    0.000    0.000    0.069    0.069
 integrate_v_rspace                  40 11.5    0.001    0.001    0.068    0.068
 cp_dbcsr_plus_fm_fm_t_native        42  9.6    0.000    0.000    0.058    0.058
 potential_pw2rs                     40 12.5    0.001    0.001    0.048    0.048
 grid_collocate_task_list            40  9.8    0.040    0.040    0.040    0.040
 dbcsr_create_new                   882 11.8    0.027    0.027    0.031    0.031
 dbcsr_multiply_generic              42 10.6    0.001    0.001    0.027    0.027
 pw_poisson_solve                    40 10.5    0.006    0.006    0.025    0.025
 init_scf_run                         3  5.7    0.000    0.000    0.024    0.024
 -------------------------------------------------------------------------------

 The number of warnings for this run is : 1
 
 -------------------------------------------------------------------------------
  **** **** ******  **  PROGRAM ENDED AT                 2023-10-19 09:42:27.228
 ***** ** ***  *** **   PROGRAM RAN ON                                   mercury
 **    ****   ******    PROGRAM RAN BY                                     rmeli
 ***** **    ** ** **   PROGRAM PROCESS ID                                 70512
  **** **  *******  **  PROGRAM STOPPED IN  /home/rmeli/git/cp2k/build-dlaf-test
